LAMMPS CG input data

528 atoms
527 bonds
657 angles
393 dihedrals
0 impropers
130 crossterms

39 atom types
55 bond types
5 angle types
263 dihedral types

-200 200 xlo xhi
-200 200 ylo yhi
-200 200 zlo zhi

Masses

1 13.018899999999999
2 13.018899999999999
3 7.0134
4 13.018899999999999
5 13.018899999999999
6 13.018899999999999
7 13.018899999999999
8 13.018899999999999
9 13.018899999999999
10 13.018899999999999
11 13.018899999999999
12 13.018899999999999
13 13.018899999999999
14 13.018899999999999
15 13.018899999999999
16 13.018899999999999
17 13.018899999999999
18 13.018899999999999
19 59.0445
20 41.0725
21 7.0134
22 81.0969
23 15.0347
24 72.0865
25 31.0341
26 57.1151
27 58.0597
28 100.1431
29 91.1323
30 45.0609
31 43.0883
32 107.1317
33 57.1151
34 73.0713
35 72.1297
36 75.1483
37 15.015
38 28.010
39 14.007

Bond Coeffs # harmonic

1 200 1.455
2 200 1.53
3 200 1.524
4 200 1.455
5 200 1.53
6 200 1.524
7 200 1.455
8 200 1.09
9 200 1.524
10 200 1.455
11 200 1.53
12 200 1.524
13 200 1.455
14 200 1.53
15 200 1.524
16 200 1.455
17 200 1.53
18 200 1.524
19 200 1.455
20 200 1.53
21 200 1.524
22 200 1.455
23 200 1.53
24 200 1.524
25 200 1.455
26 200 1.53
27 200 1.524
28 200 1.455
29 200 1.53
30 200 1.524
31 200 1.455
32 200 1.53
33 200 1.524
34 200 1.455
35 200 1.53
36 200 1.524
37 200 1.455
38 200 1.53
39 200 1.524
40 200 1.455
41 200 1.53
42 200 1.524
43 200 1.455
44 200 1.53
45 200 1.524
46 200 1.455
47 200 1.53
48 200 1.524
49 200 1.455
50 200 1.53
51 200 1.524
52 200 1.455
53 200 1.53
54 200 1.524
55 200 1.334

Angle Coeffs # harmonic

1 10.0 121.4
2 10.0 109.0
3 10.0 116.2
4 10.0 110.5
5 10.0 111.2

Dihedral Coeffs # fourier

1 2 6.10883 1 0.0 10.46 2 180.0
2 1 0.6 1 0.0
3 1 0.2 1 180.0
4 1 0.6 1 0.0
5 1 0.2 1 180.0
6 1 0.6 1 0.0
7 1 0.2 1 180.0
8 1 0.6 1 0.0
9 1 0.2 1 180.0
10 1 0.6 1 0.0
11 1 0.2 1 180.0
12 1 0.6 1 0.0
13 1 0.2 1 180.0
14 1 0.6 1 0.0
15 1 0.2 1 180.0
16 1 0.6 1 0.0
17 1 0.2 1 180.0
18 1 0.6 1 0.0
19 1 0.2 1 180.0
20 1 0.6 1 0.0
21 1 0.2 1 180.0
22 1 0.6 1 0.0
23 1 0.2 1 180.0
24 1 0.6 1 0.0
25 1 0.2 1 180.0
26 1 0.6 1 0.0
27 1 0.2 1 180.0
28 1 0.6 1 0.0
29 1 0.2 1 180.0
30 1 0.6 1 0.0
31 1 0.2 1 180.0
32 1 0.6 1 0.0
33 1 0.2 1 180.0
34 1 0.6 1 0.0
35 1 0.2 1 180.0
36 1 0.6 1 0.0
37 1 0.2 1 180.0
38 1 0.6 1 0.0
39 1 0.2 1 180.0
40 1 0.6 1 0.0
41 1 0.2 1 180.0
42 1 0.6 1 0.0
43 1 0.2 1 180.0
44 1 0.6 1 0.0
45 1 0.2 1 180.0
46 1 0.6 1 0.0
47 1 0.2 1 180.0
48 1 0.6 1 0.0
49 1 0.2 1 180.0
50 1 0.6 1 0.0
51 1 0.2 1 180.0
52 1 0.6 1 0.0
53 1 0.2 1 180.0
54 1 0.6 1 0.0
55 1 0.2 1 180.0
56 1 0.6 1 0.0
57 1 0.2 1 180.0
58 1 0.6 1 0.0
59 1 0.2 1 180.0
60 1 0.6 1 0.0
61 1 0.2 1 180.0
62 1 0.6 1 0.0
63 1 0.2 1 180.0
64 1 0.6 1 0.0
65 1 0.2 1 180.0
66 1 0.6 1 0.0
67 1 0.2 1 180.0
68 1 0.6 1 0.0
69 1 0.2 1 180.0
70 1 0.6 1 0.0
71 1 0.2 1 180.0
72 1 0.6 1 0.0
73 1 0.2 1 180.0
74 1 0.6 1 0.0
75 1 0.2 1 180.0
76 1 0.6 1 0.0
77 1 0.2 1 180.0
78 1 0.6 1 0.0
79 1 0.2 1 180.0
80 1 0.6 1 0.0
81 1 0.2 1 180.0
82 1 0.6 1 0.0
83 1 0.2 1 180.0
84 1 0.6 1 0.0
85 1 0.2 1 180.0
86 1 0.6 1 0.0
87 1 0.2 1 180.0
88 1 0.6 1 0.0
89 1 0.2 1 180.0
90 1 0.6 1 0.0
91 1 0.2 1 180.0
92 1 0.6 1 0.0
93 1 0.2 1 180.0
94 1 0.6 1 0.0
95 1 0.2 1 180.0
96 1 0.6 1 0.0
97 1 0.2 1 180.0
98 1 0.6 1 0.0
99 1 0.2 1 180.0
100 1 0.6 1 0.0
101 1 0.2 1 180.0
102 1 0.6 1 0.0
103 1 0.2 1 180.0
104 1 0.6 1 0.0
105 1 0.2 1 180.0
106 1 0.6 1 0.0
107 1 0.2 1 180.0
108 1 0.6 1 0.0
109 1 0.2 1 180.0
110 1 0.6 1 0.0
111 1 0.2 1 180.0
112 1 0.6 1 0.0
113 1 0.2 1 180.0
114 1 0.6 1 0.0
115 1 0.2 1 180.0
116 1 0.6 1 0.0
117 1 0.2 1 180.0
118 1 0.6 1 0.0
119 1 0.2 1 180.0
120 1 0.6 1 0.0
121 1 0.2 1 180.0
122 1 0.6 1 0.0
123 1 0.2 1 180.0
124 1 0.6 1 0.0
125 1 0.2 1 180.0
126 1 0.6 1 0.0
127 1 0.2 1 180.0
128 1 0.6 1 0.0
129 1 0.2 1 180.0
130 1 0.6 1 0.0
131 1 0.2 1 180.0
132 1 0.6 1 0.0
133 1 0.2 1 180.0
134 1 0.6 1 0.0
135 1 0.2 1 180.0
136 1 0.6 1 0.0
137 1 0.2 1 180.0
138 1 0.6 1 0.0
139 1 0.2 1 180.0
140 1 0.6 1 0.0
141 1 0.2 1 180.0
142 1 0.6 1 0.0
143 1 0.2 1 180.0
144 1 0.6 1 0.0
145 1 0.2 1 180.0
146 1 0.6 1 0.0
147 1 0.2 1 180.0
148 1 0.6 1 0.0
149 1 0.2 1 180.0
150 1 0.6 1 0.0
151 1 0.2 1 180.0
152 1 0.6 1 0.0
153 1 0.2 1 180.0
154 1 0.6 1 0.0
155 1 0.2 1 180.0
156 1 0.6 1 0.0
157 1 0.2 1 180.0
158 1 0.6 1 0.0
159 1 0.2 1 180.0
160 1 0.6 1 0.0
161 1 0.2 1 180.0
162 1 0.6 1 0.0
163 1 0.2 1 180.0
164 1 0.6 1 0.0
165 1 0.2 1 180.0
166 1 0.6 1 0.0
167 1 0.2 1 180.0
168 1 0.6 1 0.0
169 1 0.2 1 180.0
170 1 0.6 1 0.0
171 1 0.2 1 180.0
172 1 0.6 1 0.0
173 1 0.2 1 180.0
174 1 0.6 1 0.0
175 1 0.2 1 180.0
176 1 0.6 1 0.0
177 1 0.2 1 180.0
178 1 0.6 1 0.0
179 1 0.2 1 180.0
180 1 0.6 1 0.0
181 1 0.2 1 180.0
182 1 0.6 1 0.0
183 1 0.2 1 180.0
184 1 0.6 1 0.0
185 1 0.2 1 180.0
186 1 0.6 1 0.0
187 1 0.2 1 180.0
188 1 0.6 1 0.0
189 1 0.2 1 180.0
190 1 0.6 1 0.0
191 1 0.2 1 180.0
192 1 0.6 1 0.0
193 1 0.2 1 180.0
194 1 0.6 1 0.0
195 1 0.2 1 180.0
196 1 0.6 1 0.0
197 1 0.2 1 180.0
198 1 0.6 1 0.0
199 1 0.2 1 180.0
200 1 0.6 1 0.0
201 1 0.2 1 180.0
202 1 0.6 1 0.0
203 1 0.2 1 180.0
204 1 0.6 1 0.0
205 1 0.2 1 180.0
206 1 0.6 1 0.0
207 1 0.2 1 180.0
208 1 0.6 1 0.0
209 1 0.2 1 180.0
210 1 0.6 1 0.0
211 1 0.2 1 180.0
212 1 0.6 1 0.0
213 1 0.2 1 180.0
214 1 0.6 1 0.0
215 1 0.2 1 180.0
216 1 0.6 1 0.0
217 1 0.2 1 180.0
218 1 0.6 1 0.0
219 1 0.2 1 180.0
220 1 0.6 1 0.0
221 1 0.2 1 180.0
222 1 0.6 1 0.0
223 1 0.2 1 180.0
224 1 0.6 1 0.0
225 1 0.2 1 180.0
226 1 0.6 1 0.0
227 1 0.2 1 180.0
228 1 0.6 1 0.0
229 1 0.2 1 180.0
230 1 0.6 1 0.0
231 1 0.2 1 180.0
232 1 0.6 1 0.0
233 1 0.2 1 180.0
234 1 0.6 1 0.0
235 1 0.2 1 180.0
236 1 0.6 1 0.0
237 1 0.2 1 180.0
238 1 0.6 1 0.0
239 1 0.2 1 180.0
240 1 0.6 1 0.0
241 1 0.2 1 180.0
242 1 0.6 1 0.0
243 1 0.2 1 180.0
244 1 0.6 1 0.0
245 1 0.2 1 180.0
246 1 0.6 1 0.0
247 1 0.2 1 180.0
248 1 0.6 1 0.0
249 1 0.2 1 180.0
250 1 0.6 1 0.0
251 1 0.2 1 180.0
252 1 0.6 1 0.0
253 1 0.2 1 180.0
254 1 0.6 1 0.0
255 1 0.2 1 180.0
256 1 0.6 1 0.0
257 1 0.2 1 180.0
258 1 0.6 1 0.0
259 1 0.2 1 180.0
260 1 0.6 1 0.0
261 1 0.2 1 180.0
262 1 0.6 1 0.0
263 1 0.2 1 180.0

Atoms # full

1 1 37 1 6.573104166666674 -28.945240530303032 -65.17156818181816 0 0 0
2 1 18 0 6.484104166666672 -27.62224053030303 -64.36356818181815 0 0 0
3 1 36 0 7.794104166666674 -28.00324053030303 -63.652568181818154 0 0 0
4 1 38 0 7.657104166666674 -26.719240530303033 -64.70956818181816 0 0 0
5 1 37 0 7.508104166666673 -25.52524053030303 -64.14556818181815 0 0 0
6 1 4 0 8.685104166666672 -24.530240530303033 -64.18856818181816 0 0 0
7 1 22 0.5 8.228104166666675 -23.361240530303032 -65.06656818181816 0 0 0
8 1 38 0 9.409104166666673 -23.972240530303033 -63.00756818181816 0 0 0
9 1 37 0 9.477104166666674 -24.66824053030303 -61.89756818181816 0 0 0
10 1 4 0 10.144104166666672 -24.396240530303032 -60.682568181818155 0 0 0
11 1 22 0.5 9.125104166666674 -23.84924053030303 -59.682568181818155 0 0 0
12 1 38 0 11.157104166666674 -25.371240530303034 -60.08656818181815 0 0 0
13 1 37 0 11.934104166666673 -24.99424053030303 -59.07656818181816 0 0 0
14 1 4 0 12.762104166666674 -26.060240530303034 -58.48756818181815 0 0 0
15 1 22 0.5 14.198104166666674 -25.548240530303033 -58.673568181818155 0 0 0
16 1 38 0 12.146104166666673 -26.453240530303034 -57.045568181818155 0 0 0
17 1 37 0 12.774104166666673 -27.42724053030303 -56.39256818181815 0 0 0
18 1 4 0 12.253104166666674 -27.832240530303032 -55.164568181818154 0 0 0
19 1 22 0.5 12.495104166666673 -29.330240530303033 -54.88956818181815 0 0 0
20 1 38 0 12.216104166666673 -27.10724053030303 -53.86056818181815 0 0 0
21 1 37 0 13.136104166666673 -26.155240530303033 -53.715568181818156 0 0 0
22 1 4 0 13.255104166666673 -25.34224053030303 -52.47456818181816 0 0 0
23 1 22 0.5 14.283104166666673 -24.21824053030303 -52.59756818181815 0 0 0
24 1 38 0 11.842104166666674 -24.88124053030303 -51.965568181818156 0 0 0
25 1 37 0 11.415104166666673 -25.40624053030303 -50.825568181818156 0 0 0
26 1 4 0 10.127104166666673 -25.008240530303034 -50.34256818181815 0 0 0
27 1 22 0.5 9.919104166666674 -25.61324053030303 -48.953568181818156 0 0 0
28 1 38 0 10.031104166666672 -23.539240530303033 -49.77656818181815 0 0 0
29 1 37 0 10.860104166666673 -22.63524053030303 -50.29056818181816 0 0 0
30 1 12 0 10.843104166666674 -21.29624053030303 -49.96056818181815 0 0 0
31 1 30 0 12.223104166666673 -20.667240530303033 -50.13656818181815 0 0 0
32 1 38 0 9.462104166666673 -20.49424053030303 -49.94956818181815 0 0 0
33 1 37 0 8.525104166666672 -21.142240530303035 -50.578568181818156 0 0 0
34 1 12 0 7.247104166666674 -20.34624053030303 -50.74256818181816 0 0 0
35 1 30 0 6.400104166666672 -21.012240530303032 -51.85056818181815 0 0 0
36 1 38 0 6.041104166666674 -20.62524053030303 -49.99856818181816 0 0 0
37 1 37 0 5.792104166666672 -19.66524053030303 -49.11456818181816 0 0 0
38 1 16 0 4.6241041666666725 -19.664240530303033 -48.079568181818146 0 0 0
39 1 34 -1 4.548104166666672 -18.39524053030303 -47.21056818181815 0 0 0
40 1 38 0 3.230104166666674 -19.43024053030303 -48.65956818181816 0 0 0
41 1 37 0 3.0791041666666743 -19.39524053030303 -49.97956818181815 0 0 0
42 1 1 0 1.823104166666674 -19.399240530303032 -50.63356818181815 0 0 0
43 1 19 -1 1.8921041666666731 -19.184240530303033 -52.15056818181816 0 0 0
44 1 38 0 1.0531041666666745 -20.751240530303033 -50.48956818181816 0 0 0
45 1 37 0 1.786104166666675 -21.755240530303034 -50.033568181818154 0 0 0
46 1 17 0 1.1091041666666719 -23.004240530303033 -49.66556818181816 0 0 0
47 1 35 1 2.141104166666672 -24.059240530303033 -49.25156818181816 0 0 0
48 1 38 0 0.20510416666667197 -22.99124053030303 -48.405568181818154 0 0 0
49 1 37 0 0.09410416666667487 -21.853240530303033 -47.72556818181815 0 0 0
50 1 15 0 -0.8468958333333276 -21.704240530303032 -46.67856818181815 0 0 0
51 1 33 0 -0.6358958333333256 -20.29924053030303 -46.036568181818154 0 0 0
52 1 38 0 -2.365895833333326 -21.889240530303034 -47.24556818181816 0 0 0
53 1 37 0 -3.105895833333328 -22.477240530303032 -46.30856818181816 0 0 0
54 1 7 0 -4.4788958333333255 -22.78424053030303 -46.38056818181815 0 0 0
55 1 25 0 -5.113895833333327 -23.655240530303033 -45.27956818181815 0 0 0
56 1 38 0 -5.1768958333333295 -21.45824053030303 -46.15156818181815 0 0 0
57 1 37 0 -6.12189583333333 -21.129240530303033 -47.030568181818154 0 0 0
58 1 10 0 -6.87789583333333 -19.891240530303033 -46.94056818181815 0 0 0
59 1 28 1 -7.773895833333324 -19.585240530303032 -48.13056818181815 0 0 0
60 1 38 0 -8.204895833333328 -20.09624053030303 -46.19856818181816 0 0 0
61 1 37 0 -8.152895833333329 -20.898240530303035 -45.194568181818155 0 0 0
62 1 5 0 -8.908895833333329 -20.941240530303034 -43.90456818181815 0 0 0
63 1 23 0 -8.412895833333327 -21.72624053030303 -42.69956818181815 0 0 0
64 1 38 0 -9.411895833333329 -19.46424053030303 -43.36756818181816 0 0 0
65 1 37 0 -10.717895833333326 -19.513240530303033 -43.11756818181816 0 0 0
66 1 13 0 -11.48189583333333 -18.466240530303033 -42.60456818181815 0 0 0
67 1 31 0 -12.998895833333325 -18.548240530303033 -42.79156818181815 0 0 0
68 1 38 0 -11.242895833333325 -18.435240530303034 -41.042568181818154 0 0 0
69 1 37 0 -10.846895833333324 -17.222240530303033 -40.679568181818155 0 0 0
70 1 3 0 -10.636895833333323 -17.004240530303033 -39.200568181818156 0 0 0
71 1 21 0 -11.507895833333325 -17.40424053030303 -38.661568181818154 0 0 0
72 1 38 0 -9.357895833333327 -17.643240530303032 -38.60956818181815 0 0 0
73 1 39 0 -9.60989583333333 -18.727240530303032 -37.895568181818156 0 0 0
74 1 2 0 -8.536895833333329 -19.416240530303032 -37.146568181818154 0 0 0
75 1 20 0 -9.096895833333324 -19.95324053030303 -35.840568181818156 0 0 0
76 1 38 0 -8.033895833333329 -20.399240530303032 -38.15656818181815 0 0 0
77 1 37 0 -6.741895833333327 -20.53824053030303 -38.45256818181815 0 0 0
78 1 10 0 -6.384895833333328 -21.523240530303035 -39.46356818181815 0 0 0
79 1 28 1 -4.855895833333324 -21.542240530303033 -39.44356818181815 0 0 0
80 1 38 0 -6.832895833333328 -22.98524053030303 -39.11356818181815 0 0 0
81 1 37 0 -7.299895833333327 -23.109240530303033 -37.89056818181815 0 0 0
82 1 6 0 -7.605895833333324 -24.502240530303034 -37.444568181818155 0 0 0
83 1 24 0 -7.582895833333328 -24.501240530303033 -35.91356818181816 0 0 0
84 1 38 0 -8.937895833333325 -24.71224053030303 -37.94256818181815 0 0 0
85 1 37 0 -9.195895833333328 -25.920240530303033 -38.43656818181816 0 0 0
86 1 5 0 -10.514895833333323 -26.37224053030303 -39.01956818181816 0 0 0
87 1 23 0 -10.482895833333327 -27.812240530303033 -39.52256818181816 0 0 0
88 1 38 0 -11.61589583333333 -26.315240530303033 -38.145568181818156 0 0 0
89 1 37 0 -11.366895833333327 -26.570240530303032 -36.828568181818156 0 0 0
90 1 6 0 -12.160895833333324 -26.29924053030303 -35.59556818181815 0 0 0
91 1 24 0 -11.215895833333324 -26.819240530303034 -34.518568181818154 0 0 0
92 1 38 0 -12.826895833333328 -24.887240530303032 -35.28456818181815 0 0 0
93 1 37 0 -14.151895833333324 -24.83624053030303 -35.337568181818156 0 0 0
94 1 13 0 -14.724895833333324 -23.56724053030303 -34.959568181818156 0 0 0
95 1 31 0 -15.803895833333325 -23.39124053030303 -36.06256818181815 0 0 0
96 1 38 0 -15.196895833333325 -23.383240530303034 -33.57456818181815 0 0 0
97 1 37 0 -15.433895833333327 -22.142240530303035 -33.152568181818154 0 0 0
98 1 7 0 -15.886895833333323 -21.818240530303033 -31.792568181818154 0 0 0
99 1 25 0 -16.09189583333333 -20.301240530303033 -31.640568181818153 0 0 0
100 1 38 0 -17.05189583333333 -22.51624053030303 -31.393568181818154 0 0 0
101 1 37 0 -17.323895833333328 -22.882240530303033 -30.14456818181815 0 0 0
102 1 11 0 -18.635895833333326 -23.59824053030303 -29.86456818181815 0 0 0
103 1 29 0 -18.578895833333323 -24.134240530303032 -28.429568181818155 0 0 0
104 1 38 0 -19.87489583333333 -22.681240530303032 -29.853568181818154 0 0 0
105 1 37 0 -20.803895833333325 -22.86624053030303 -30.779568181818156 0 0 0
106 1 8 0 -21.913895833333324 -21.93324053030303 -30.826568181818153 0 0 0
107 1 26 0 -23.032895833333324 -22.447240530303034 -31.735568181818152 0 0 0
108 1 38 0 -22.766895833333326 -22.02824053030303 -29.57156818181815 0 0 0
109 1 37 0 -23.03389583333333 -20.83024053030303 -29.069568181818155 0 0 0
110 1 4 0 -23.697895833333323 -20.513240530303033 -27.786568181818154 0 0 0
111 1 22 0.5 -22.883895833333323 -20.097240530303033 -26.585568181818154 0 0 0
112 1 38 0 -24.81089583333333 -19.734240530303033 -28.148568181818156 0 0 0
113 1 37 0 -25.89989583333333 -20.359240530303033 -28.579568181818154 0 0 0
114 1 3 0 -27.130895833333323 -19.469240530303033 -29.036568181818154 0 0 0
115 1 21 0 -27.858895833333325 -19.977240530303032 -29.685568181818155 0 0 0
116 1 38 0 -27.553895833333325 -19.33924053030303 -27.544568181818157 0 0 0
117 1 37 0 -28.132895833333325 -20.373240530303033 -26.966568181818154 0 0 0
118 1 1 0 -28.42689583333333 -20.33724053030303 -25.57156818181815 0 0 0
119 1 19 -1 -28.202895833333326 -21.639240530303034 -24.794568181818157 0 0 0
120 1 38 0 -27.918895833333327 -19.198240530303032 -24.869568181818153 0 0 0
121 1 37 0 -28.634895833333328 -18.176240530303033 -24.43456818181815 0 0 0
122 1 6 0 -27.75289583333333 -17.075240530303034 -23.74256818181815 0 0 0
123 1 24 0 -28.324895833333326 -15.733240530303032 -24.198568181818153 0 0 0
124 1 38 0 -27.187895833333325 -17.024240530303032 -22.310568181818155 0 0 0
125 1 37 0 -27.569895833333323 -17.928240530303032 -21.409568181818152 0 0 0
126 1 7 0 -27.007895833333325 -17.864240530303032 -20.100568181818154 0 0 0
127 1 25 0 -26.04589583333333 -19.01424053030303 -19.792568181818154 0 0 0
128 1 38 0 -26.989895833333325 -16.481240530303033 -19.527568181818154 0 0 0
129 1 37 0 -28.178895833333325 -15.883240530303032 -19.74256818181815 0 0 0
130 1 16 0 -28.773895833333324 -14.593240530303031 -19.310568181818155 0 0 0
131 1 34 -1 -30.24089583333333 -14.687240530303033 -19.75156818181815 0 0 0
132 1 38 0 -28.026895833333324 -13.937240530303033 -18.026568181818156 0 0 0
133 1 37 0 -27.446895833333325 -14.782240530303032 -17.17856818181815 0 0 0
134 1 9 0 -26.92389583333333 -14.543240530303033 -15.991568181818153 0 0 0
135 1 27 0 -25.701895833333328 -13.707240530303032 -16.39456818181815 0 0 0
136 1 38 0 -27.769895833333326 -14.734240530303031 -14.68756818181815 0 0 0
137 1 37 0 -28.75289583333333 -13.838240530303032 -14.679568181818155 0 0 0
138 1 16 0 -29.656895833333326 -13.610240530303033 -13.520568181818156 0 0 0
139 1 34 -1 -30.270895833333324 -14.944240530303032 -13.072568181818156 0 0 0
140 1 38 0 -28.951895833333328 -12.488240530303033 -12.680568181818153 0 0 0
141 1 37 0 -27.637895833333328 -12.552240530303033 -12.674568181818152 0 0 0
142 1 8 0 -26.89689583333333 -11.594240530303033 -11.858568181818157 0 0 0
143 1 26 0 -25.46989583333333 -12.011240530303033 -11.588568181818154 0 0 0
144 1 38 0 -26.617895833333325 -10.322240530303032 -12.591568181818154 0 0 0
145 1 39 0 -27.187895833333325 -9.251240530303033 -12.05956818181815 0 0 0
146 1 2 0 -27.034895833333326 -7.8702405303030325 -12.604568181818152 0 0 0
147 1 20 0 -27.34789583333333 -6.832240530303032 -11.524568181818154 0 0 0
148 1 38 0 -25.730895833333324 -7.531240530303032 -13.113568181818152 0 0 0
149 1 37 0 -25.561895833333327 -7.190240530303032 -14.381568181818153 0 0 0
150 1 10 0 -24.12189583333333 -6.863240530303032 -14.827568181818151 0 0 0
151 1 28 1 -23.653895833333326 -7.6522405303030325 -16.054568181818155 0 0 0
152 1 38 0 -24.474895833333324 -5.263240530303032 -15.294568181818157 0 0 0
153 1 37 0 -23.410895833333324 -4.559240530303033 -14.932568181818155 0 0 0
154 1 8 0 -23.004895833333325 -3.2372405303030316 -15.04756818181815 0 0 0
155 1 26 0 -22.376895833333325 -2.5962405303030316 -13.80956818181815 0 0 0
156 1 38 0 -22.37189583333333 -3.0532405303030323 -16.274568181818154 0 0 0
157 1 37 0 -22.596895833333324 -1.9442405303030323 -16.994568181818153 0 0 0
158 1 3 0 -21.97889583333333 -1.6282405303030316 -18.33356818181815 0 0 0
159 1 21 0 -22.421895833333327 -0.7082405303030317 -18.741568181818153 0 0 0
160 1 38 0 -20.348895833333327 -1.4452405303030318 -18.183568181818153 0 0 0
161 1 37 0 -19.68589583333333 -1.9542405303030321 -19.213568181818154 0 0 0
162 1 3 0 -18.29589583333333 -1.8452405303030321 -19.24556818181815 0 0 0
163 1 21 0 -17.910895833333324 -2.430240530303033 -20.093568181818156 0 0 0
164 1 38 0 -17.763895833333326 -0.326240530303032 -19.371568181818155 0 0 0
165 1 37 0 -16.730895833333324 -0.07024053030303179 -18.552568181818152 0 0 0
166 1 17 0 -16.11289583333333 1.1987594696969683 -18.604568181818152 0 0 0
167 1 35 1 -15.328895833333323 1.3657594696969682 -17.304568181818155 0 0 0
168 1 38 0 -15.390895833333328 1.3927594696969674 -19.892568181818156 0 0 0
169 1 37 0 -15.469895833333329 2.6487594696969676 -20.32156818181815 0 0 0
170 1 16 0 -14.714895833333326 3.2227594696969675 -21.499568181818155 0 0 0
171 1 34 -1 -14.840895833333324 4.740759469696968 -21.633568181818156 0 0 0
172 1 38 0 -13.17689583333333 2.8717594696969684 -21.423568181818155 0 0 0
173 1 37 0 -12.711895833333326 2.742759469696967 -20.18456818181815 0 0 0
174 1 1 0 -11.353895833333329 2.319759469696967 -19.973568181818152 0 0 0
175 1 19 -1 -10.860895833333327 3.264759469696969 -18.875568181818153 0 0 0
176 1 38 0 -11.297895833333325 1.1697594696969684 -18.898568181818156 0 0 0
177 1 37 0 -10.488895833333327 0.14575946969696751 -19.158568181818154 0 0 0
178 1 10 0 -10.379895833333325 -0.8952405303030329 -18.19656818181815 0 0 0
179 1 28 1 -9.571895833333325 -1.946240530303033 -18.973568181818152 0 0 0
180 1 38 0 -9.937895833333325 -0.3832405303030324 -16.913568181818157 0 0 0
181 1 37 0 -10.276895833333324 -0.9502405303030326 -15.758568181818156 0 0 0
182 1 10 0 -9.599895833333324 -0.4252405303030322 -14.50756818181815 0 0 0
183 1 28 1 -10.407895833333324 -1.124240530303032 -13.416568181818157 0 0 0
184 1 38 0 -8.208895833333326 -0.9602405303030324 -14.308568181818153 0 0 0
185 1 37 0 -7.264895833333323 -0.046240530303032656 -14.282568181818156 0 0 0
186 1 13 0 -5.824895833333326 -0.3642405303030323 -14.077568181818151 0 0 0
187 1 31 0 -4.939895833333328 0.8867594696969672 -13.942568181818153 0 0 0
188 1 38 0 -5.519895833333326 -1.0882405303030325 -12.902568181818154 0 0 0
189 1 37 0 -6.259895833333328 -0.7742405303030324 -11.80056818181815 0 0 0
190 1 17 0 -6.372895833333327 -1.4382405303030321 -10.473568181818152 0 0 0
191 1 35 1 -7.132895833333325 -0.6192405303030313 -9.419568181818157 0 0 0
192 1 38 0 -6.81389583333333 -3.0612405303030314 -10.578568181818156 0 0 0
193 1 37 0 -6.12489583333333 -3.752240530303032 -9.664568181818154 0 0 0
194 1 6 0 -6.3388958333333285 -5.181240530303032 -9.81856818181815 0 0 0
195 1 24 0 -7.820895833333328 -5.5642405303030325 -9.80956818181815 0 0 0
196 1 38 0 -5.736895833333325 -5.816240530303032 -11.079568181818154 0 0 0
197 1 37 0 -4.575895833333327 -5.283240530303032 -11.444568181818155 0 0 0
198 1 7 0 -3.7528958333333264 -5.548240530303032 -12.578568181818156 0 0 0
199 1 25 0 -4.383895833333327 -4.876240530303032 -13.764568181818156 0 0 0
200 1 38 0 -2.331895833333327 -5.138240530303032 -12.30056818181815 0 0 0
201 1 37 0 -1.4628958333333273 -5.931240530303032 -12.917568181818154 0 0 0
202 1 10 0 0.016104166666671915 -5.907240530303032 -12.903568181818152 0 0 0
203 1 28 1 0.7421041666666746 -7.004240530303032 -13.67556818181815 0 0 0
204 1 38 0 0.4881041666666732 -4.3222405303030325 -13.316568181818155 0 0 0
205 1 37 0 1.5991041666666739 -4.180240530303033 -12.592568181818152 0 0 0
206 1 3 0 2.0241041666666746 -2.685240530303032 -12.74256818181815 0 0 0
207 1 21 0 1.3711041666666723 -2.1672405303030313 -13.460568181818154 0 0 0
208 1 38 0 1.9301041666666734 -2.073240530303032 -11.43756818181815 0 0 0
209 1 37 0 0.8221041666666729 -2.063240530303032 -10.697568181818156 0 0 0
210 1 16 0 0.504104166666675 -1.6252405303030315 -9.42556818181815 0 0 0
211 1 34 -1 -0.6278958333333264 -0.6412405303030315 -9.426568181818155 0 0 0
212 1 38 0 0.6251041666666737 -2.3282405303030327 -8.028568181818152 0 0 0
213 1 37 0 1.1741041666666732 -3.5482405303030315 -8.031568181818152 0 0 0
214 1 5 0 0.9561041666666732 -4.376240530303033 -6.842568181818152 0 0 0
215 1 23 0 0.7851041666666738 -5.850240530303032 -7.084568181818156 0 0 0
216 1 38 0 1.918104166666673 -4.312240530303033 -5.658568181818154 0 0 0
217 1 37 0 2.014104166666673 -3.0882405303030325 -5.154568181818153 0 0 0
218 1 10 0 2.8631041666666732 -2.8272405303030315 -3.942568181818153 0 0 0
219 1 28 1 2.878104166666674 -1.3492405303030317 -3.5465681818181523 0 0 0
220 1 38 0 2.410104166666674 -3.446240530303033 -2.7035681818181523 0 0 0
221 1 37 0 1.2711041666666745 -4.130240530303032 -2.7105681818181537 0 0 0
222 1 16 0 0.7511041666666749 -4.980240530303032 -1.631568181818153 0 0 0
223 1 34 -1 -0.37789583333332644 -5.715240530303032 -2.342568181818155 0 0 0
224 1 38 0 1.6881041666666725 -6.091240530303032 -1.4845681818181546 0 0 0
225 1 37 0 2.036104166666675 -6.481240530303032 -0.26756818181815234 0 0 0
226 1 7 0 3.0641041666666737 -7.595240530303032 -0.1315681818181531 0 0 0
227 1 25 0 3.9701041666666725 -7.508240530303032 1.0954318181818472 0 0 0
228 1 38 0 2.1521041666666747 -8.818240530303033 0.4204318181818465 0 0 0
229 1 37 0 2.322104166666673 -9.911240530303033 -0.31056818181815515 0 0 0
230 1 14 0 1.7201041666666725 -11.149240530303032 -0.06256818181815405 0 0 0
231 1 32 0 1.1351041666666752 -11.735240530303033 -1.3345681818181525 0 0 0
232 1 38 0 2.2651041666666742 -12.230240530303032 0.6194318181818481 0 0 0
233 1 37 0 2.408104166666675 -12.203240530303033 1.9564318181818479 0 0 0
234 1 10 0 3.253104166666674 -13.252240530303032 2.706431818181848 0 0 0
235 1 28 1 3.1351041666666752 -12.772240530303032 4.146431818181846 0 0 0
236 1 38 0 2.9411041666666726 -14.693240530303033 2.7524318181818472 0 0 0
237 1 37 0 3.3721041666666736 -15.489240530303032 1.7524318181818472 0 0 0
238 1 16 0 3.051104166666672 -16.908240530303033 1.690431818181846 0 0 0
239 1 34 -1 3.6011041666666728 -17.53124053030303 0.41443181818184627 0 0 0
240 1 38 0 3.5471041666666743 -17.736240530303032 2.818431818181846 0 0 0
241 1 37 0 4.718104166666674 -17.370240530303033 3.340431818181848 0 0 0
242 1 12 0 5.363104166666673 -18.111240530303032 4.456431818181848 0 0 0
243 1 30 0 6.779104166666674 -18.568240530303033 4.029431818181848 0 0 0
244 1 38 0 4.976104166666673 -17.327240530303033 5.752431818181847 0 0 0
245 1 37 0 5.745104166666675 -16.266240530303033 6.004431818181846 0 0 0
246 1 3 0 5.479104166666673 -15.511240530303033 7.224431818181845 0 0 0
247 1 21 0 6.135104166666675 -14.628240530303032 7.238431818181848 0 0 0
248 1 38 0 4.030104166666675 -15.042240530303033 7.412431818181847 0 0 0
249 1 39 0 3.711104166666672 -14.546240530303033 8.592431818181847 0 0 0
250 1 2 0 2.3681041666666722 -14.071240530303033 8.865431818181847 0 0 0
251 1 20 0 2.359104166666672 -13.731240530303031 10.361431818181847 0 0 0
252 1 38 0 2.0951041666666725 -12.952240530303031 7.753431818181845 0 0 0
253 1 37 0 0.8041041666666722 -12.701240530303032 7.647431818181847 0 0 0
254 1 7 0 0.2561041666666739 -11.798240530303032 6.671431818181848 0 0 0
255 1 25 0 -0.9828958333333269 -12.218240530303031 5.869431818181848 0 0 0
256 1 38 0 -0.277895833333325 -10.729240530303032 7.4574318181818455 0 0 0
257 1 37 0 -0.1638958333333278 -9.540240530303032 6.894431818181847 0 0 0
258 1 10 0 -0.22789583333332786 -8.091240530303033 7.357431818181848 0 0 0
259 1 28 1 1.033104166666675 -7.246240530303032 7.173431818181847 0 0 0
260 1 38 0 -1.4118958333333254 -7.494240530303032 6.691431818181847 0 0 0
261 1 37 0 -2.054895833333326 -6.581240530303032 7.401431818181848 0 0 0
262 1 5 0 -3.326895833333328 -5.934240530303033 6.931431818181846 0 0 0
263 1 23 0 -4.253895833333328 -5.417240530303032 8.026431818181848 0 0 0
264 1 38 0 -2.945895833333328 -4.813240530303032 6.061431818181848 0 0 0
265 1 37 0 -1.6788958333333248 -4.471240530303032 6.276431818181848 0 0 0
266 1 7 0 -0.963895833333325 -3.2552405303030323 5.635431818181846 0 0 0
267 1 25 0 -1.0218958333333248 -3.653240530303032 4.161431818181846 0 0 0
268 1 38 0 -1.8108958333333263 -1.919240530303032 5.990431818181847 0 0 0
269 1 37 0 -2.3788958333333277 -1.805240530303033 7.182431818181847 0 0 0
270 1 1 0 -3.0408958333333267 -0.6822405303030319 7.5084318181818475 0 0 0
271 1 19 -1 -4.318895833333325 -1.0432405303030325 8.281431818181847 0 0 0
272 1 38 0 -2.428895833333325 0.14575946969696751 8.594431818181846 0 0 0
273 1 37 0 -2.5558958333333273 1.4567594696969675 8.484431818181847 0 0 0
274 1 5 0 -1.951895833333328 2.3907594696969685 9.459431818181848 0 0 0
275 1 23 0 -2.4848958333333258 2.2017594696969685 10.897431818181847 0 0 0
276 1 38 0 -0.41189583333332536 2.221759469696968 9.388431818181846 0 0 0
277 1 37 0 0.17110416666667305 2.0077594696969676 8.211431818181847 0 0 0
278 1 10 0 1.5521041666666733 1.7737594696969676 8.124431818181847 0 0 0
279 1 28 1 1.9151041666666728 1.3287594696969673 6.700431818181848 0 0 0
280 1 38 0 1.8851041666666752 3.2657594696969667 8.001431818181846 0 0 0
281 1 37 0 1.955104166666672 3.8747594696969685 9.214431818181847 0 0 0
282 1 5 0 2.272104166666672 5.365759469696968 9.134431818181845 0 0 0
283 1 23 0 1.1671041666666717 6.4017594696969695 8.992431818181846 0 0 0
284 1 38 0 3.3691041666666734 5.794759469696967 10.053431818181847 0 0 0
285 1 37 0 3.820104166666674 4.9947594696969695 11.018431818181847 0 0 0
286 1 5 0 5.005104166666673 5.469759469696967 11.771431818181847 0 0 0
287 1 23 0 6.437104166666675 5.955759469696968 11.555431818181846 0 0 0
288 1 38 0 4.414104166666675 6.349759469696966 12.854431818181846 0 0 0
289 1 37 0 3.5821041666666744 7.330759469696968 12.477431818181847 0 0 0
290 1 4 0 2.919104166666674 8.18075946969697 13.426431818181847 0 0 0
291 1 22 0.5 2.7161041666666748 9.550759469696967 12.775431818181847 0 0 0
292 1 38 0 1.6031041666666752 7.516759469696968 13.926431818181847 0 0 0
293 1 37 0 1.6481041666666734 6.886759469696969 15.091431818181846 0 0 0
294 1 8 0 0.43710416666667484 6.228759469696968 15.539431818181846 0 0 0
295 1 26 0 0.9881041666666732 5.024759469696967 16.36143181818185 0 0 0
296 1 38 0 -0.490895833333326 7.328759469696969 15.875431818181847 0 0 0
297 1 39 0 -1.762895833333328 6.936759469696966 16.11443181818185 0 0 0
298 1 2 0 -2.8788958333333277 7.809759469696967 16.512431818181845 0 0 0
299 1 20 0 -4.142895833333327 6.949759469696968 16.600431818181846 0 0 0
300 1 38 0 -2.6608958333333277 8.394759469696968 17.933431818181845 0 0 0
301 1 37 0 -1.5658958333333253 7.993759469696968 18.563431818181847 0 0 0
302 1 12 0 -1.1968958333333255 8.438759469696969 19.862431818181847 0 0 0
303 1 30 0 -1.586895833333326 7.560759469696968 21.076431818181845 0 0 0
304 1 38 0 0.35110416666667277 8.64875946969697 19.798431818181847 0 0 0
305 1 37 0 0.7841041666666726 9.345759469696969 20.861431818181845 0 0 0
306 1 3 0 2.2771041666666747 9.659759469696969 20.801431818181847 0 0 0
307 1 21 0 2.8321041666666744 8.718759469696966 20.669431818181845 0 0 0
308 1 38 0 2.6891041666666737 10.655759469696967 19.65443181818185 0 0 0
309 1 37 0 1.690104166666675 11.382759469696968 19.206431818181848 0 0 0
310 1 12 0 1.8081041666666735 12.472759469696967 18.289431818181846 0 0 0
311 1 30 0 0.46310416666667464 12.993759469696968 17.72143181818185 0 0 0
312 1 38 0 2.443104166666675 13.722759469696967 18.948431818181845 0 0 0
313 1 39 0 2.4351041666666724 13.725759469696968 20.276431818181848 0 0 0
314 1 2 0 2.946104166666675 14.909759469696969 20.973431818181847 0 0 0
315 1 20 0 2.1831041666666735 14.893759469696967 22.294431818181845 0 0 0
316 1 38 0 4.439104166666674 14.341759469696967 21.242431818181846 0 0 0
317 1 37 0 5.326104166666674 15.317759469696966 21.116431818181844 0 0 0
318 1 8 0 6.734104166666672 15.14575946969697 21.176431818181847 0 0 0
319 1 26 0 7.523104166666673 15.870759469696967 20.095431818181847 0 0 0
320 1 38 0 7.293104166666673 15.867759469696967 22.335431818181846 0 0 0
321 1 37 0 6.422104166666674 16.146759469696967 23.301431818181847 0 0 0